55
Lattice="0.0 0.0 0.0 0.0 0.0 0.0 0.0 0.0 0.0" Properties=species:S:1:pos:R:3:Z:I:1 pbc="F F F" i=61, E=-2646.041112833
Cu      8.17379637       8.17387807       8.17379165       29 
Cu      8.15643879       9.43538372      10.24834839       29 
Cu      8.14714424       9.45015505       6.10796411       29 
Cu      8.20281666       6.90007724      10.24172739       29 
Cu      8.19260398       6.91393770       6.10091601       29 
Cu      9.43538443      10.24835544       8.15643499       29 
Cu      6.90005255      10.24175555       8.20281655       29 
Cu      9.45013157       6.10798973       8.14714427       29 
Cu      6.91393682       6.10092393       8.19259859       29 
Cu     10.24834276       8.15647122       9.43537660       29 
Cu     10.24173946       8.20281843       6.90006276       29 
Cu      6.10797273       8.14714656       9.45013978       29 
Cu      6.10091050       8.19261048       6.91392995       29 
Cu      4.06126927       8.18182425       5.68635152       29 
Cu      8.20075323      10.66368373      12.28792703       29 
Cu      8.14060392      10.73025312       4.11319479       29 
Cu      8.21163178       5.61960572      12.23611803       29 
Cu      8.18184821       5.68635252       4.06127124       29 
Cu     10.66368277      12.28793103       8.20075539       29 
Cu      5.61959652      12.23612838       8.21163151       29 
Cu     10.73024903       4.11320581       8.14060331       29 
Cu      5.68635409       4.06127344       8.18181416       29 
Cu     12.28792311       8.20075384      10.66368165       29 
Cu     12.23612360       8.21163314       5.61960020       29 
Cu      4.11319977       8.14060405      10.73025300       29 
Cu      8.14072816      12.37343236       8.20343447       29 
Cu      8.20962156       3.97629647       8.14498076       29 
Cu      3.97629040       8.14498094       8.20961989       29 
Cu     12.37342873       8.20343000       8.14072919       29 
Cu      8.14498236       8.20962056       3.97629070       29 
Cu      8.20342148       8.14072910      12.37342768       29 
Cu      9.50785189       4.79098431      10.24796798       29 
Cu      6.91816687       4.74047363      10.25834422       29 
Cu      9.50097758       4.79994022       6.03051398       29 
Cu      6.91011585       4.80001691       6.08446784       29 
Cu     11.55961919       6.10235349       6.84320449       29 
Cu     11.61047394       6.09518565       9.43290744       29 
Cu      4.80001558       6.08447303       6.91011189       29 
Cu      4.79994025       6.03051055       9.50097952       29 
Cu      9.43291113      11.61047408       6.09517654       29 
Cu      9.43917461      11.54980726      10.26758681       29 
Cu      6.84320132      11.55962465       6.10234978       29 
Cu      6.84985298      11.54878782      10.32122350       29 
Cu      6.03050976       9.50097889       4.79993638       29 
Cu     10.24797057       9.50785402       4.79097685       29 
Cu      6.08447422       6.91011159       4.80001473       29 
Cu     10.25835142       6.91816753       4.74047282       29 
Cu      4.79097618      10.24797074       9.50785417       29 
Cu      4.74046836      10.25835021       6.91816566       29 
Cu      6.10235387       6.84320429      11.55961800       29 
Cu     10.32121871       6.84985632      11.54878183       29 
Cu     10.26758563       9.43917771      11.54980629       29 
Cu      6.09517822       9.43291162      11.61047211       29 
Cu     11.54878627      10.32122454       6.84985363       29 
Cu     11.54980726      10.26759532       9.43917536       29 
